[Molden Format]
made by pyscf v[2.8.0]
[Atoms] (AU)
H   1   1     0.00000000000000     0.00000000000000     0.00000000000000
H   2   1     1.75744529584551     0.00000000000000     0.00000000000000
H   3   1    -1.75744529584551     0.00000000000000     0.00000000000000
[GTO]
1 0
 s    3 1.00
            3.42525091    0.15432897070298
            0.62391373    0.53532814243847
             0.1688554    0.44463454202535

2 0
 s    3 1.00
            3.42525091    0.15432897070298
            0.62391373    0.53532814243847
             0.1688554    0.44463454202535

3 0
 s    3 1.00
            3.42525091    0.15432897070298
            0.62391373    0.53532814243847
             0.1688554    0.44463454202535

[5d]
[7f]
[9g]

[MO]
 Sym= A
 Ene=   -0.6668959278
 Spin= Alpha
 Occup=    1.00000
   1      0.40379567544628
   2      0.44314688209255
   3      0.44314688209255
 Sym= A
 Ene=   -0.3619061413
 Spin= Alpha
 Occup=    1.00000
   1    4.4408920985006e-16
   2     -0.76667864336077
   3      0.76667864336077
 Sym= A
 Ene=    0.7503303611
 Spin= Alpha
 Occup=    0.00000
   1       1.3625126277145
   2      -0.8259211864745
   3      -0.8259211864745
