[Molden Format]
made by pyscf v[2.9.0]
[Atoms] (AU)
H   1   1     0.00000000000000     0.00000000000000     0.00000000000000
H   2   1     1.75744529584551     0.00000000000000     0.00000000000000
H   3   1    -1.75744529584551     0.00000000000000     0.00000000000000
[GTO]
1 0
 s    3 1.00
             18.731137    0.03349459952309
             2.8253937    0.23472694665786
             0.6401217    0.81375731841339
 s    1 1.00
             0.1612778                   1

2 0
 s    3 1.00
             18.731137    0.03349459952309
             2.8253937    0.23472694665786
             0.6401217    0.81375731841339
 s    1 1.00
             0.1612778                   1

3 0
 s    3 1.00
             18.731137    0.03349459952309
             2.8253937    0.23472694665786
             0.6401217    0.81375731841339
 s    1 1.00
             0.1612778                   1

[5d]
[7f]
[9g]

[MO]
 Sym= A
 Ene=    -0.697855162
 Spin= Alpha
 Occup=    1.00000
   1      0.26547078148246
   2      0.17929480977543
   3      0.25705013692189
   4      0.22047562643613
   5      0.25705013692189
   6      0.22047562643613
 Sym= A
 Ene=    -0.405780828
 Spin= Alpha
 Occup=    1.00000
   1    4.1238883414754e-16
   2    -1.7444521818949e-15
   3      0.32584927283768
   4      0.56444093701057
   5     -0.32584927283768
   6     -0.56444093701057
 Sym= A
 Ene=    0.2826970917
 Spin= Alpha
 Occup=    0.00000
   1      0.25217589455071
   2       2.5053208382456
   3    -0.021339978928349
   4      -1.6248874322836
   5    -0.021339978928352
   6      -1.6248874322836
 Sym= A
 Ene=    0.8712062064
 Spin= Alpha
 Occup=    0.00000
   1     -0.58839468437402
   2       1.1596775249141
   3     -0.72710154412462
   4      0.14578770281566
   5     -0.72710154412463
   6      0.14578770281568
 Sym= A
 Ene=    0.9494424059
 Spin= Alpha
 Occup=    0.00000
   1    -5.1522488757506e-16
   2    5.340662313048e-15
   3     -0.90098662516724
   4       1.0572048325986
   5      0.90098662516723
   6      -1.0572048325986
 Sym= A
 Ene=     1.302501036
 Spin= Alpha
 Occup=    0.00000
   1      -1.2655113634441
   2       2.3557661961416
   3      0.57319029226567
   4      -1.2676124150045
   5      0.57319029226568
   6      -1.2676124150046
