[Molden Format]
made by pyscf v[2.9.0]
[Atoms] (AU)
H   1   1     0.00000000000000     0.00000000000000     0.00000000000000
H   2   1     1.75744529584551     0.00000000000000     0.00000000000000
H   3   1    -1.75744529584551     0.00000000000000     0.00000000000000
[GTO]
1 0
 s    3 1.00
             18.731137    0.03349459952309
             2.8253937    0.23472694665786
             0.6401217    0.81375731841339
 s    1 1.00
             0.1612778                   1

2 0
 s    3 1.00
             18.731137    0.03349459952309
             2.8253937    0.23472694665786
             0.6401217    0.81375731841339
 s    1 1.00
             0.1612778                   1

3 0
 s    3 1.00
             18.731137    0.03349459952309
             2.8253937    0.23472694665786
             0.6401217    0.81375731841339
 s    1 1.00
             0.1612778                   1

[5d]
[7f]
[9g]

[MO]
 Sym= A
 Ene=   -0.5991375245
 Spin= Alpha
 Occup=    1.00000
   1      0.36582997872039
   2      0.49061514817661
   3       0.1622863549902
   4     0.044426755599319
   5       0.1622863549902
   6     0.044426755599319
 Sym= A
 Ene=   0.07815748964
 Spin= Alpha
 Occup=    0.00000
   1    1.4261603555746e-16
   2    -7.0045770539244e-15
   3      0.20415216880439
   4      0.69896518268344
   5     -0.20415216880439
   6     -0.69896518268343
 Sym= A
 Ene=    0.3428908572
 Spin= Alpha
 Occup=    0.00000
   1      0.23147576416448
   2       2.3767125326797
   3     0.003930812322647
   4      -1.6650159070511
   5    0.0039308123226451
   6      -1.6650159070511
 Sym= A
 Ene=    0.9316738496
 Spin= Alpha
 Occup=    0.00000
   1     -0.82660031250155
   2       1.7656786016384
   3     -0.60909686182414
   4     -0.23478980681219
   5     -0.60909686182415
   6     -0.23478980681218
 Sym= A
 Ene=     1.072142584
 Spin= Alpha
 Occup=    0.00000
   1    1.0079855880669e-15
   2    -3.36026136214e-15
   3      0.93609643697194
   4     -0.97351081290324
   5     -0.93609643697194
   6      0.97351081290324
 Sym= A
 Ene=     1.347646061
 Spin= Alpha
 Occup=    0.00000
   1      -1.1005062716156
   2       2.0484576766761
   3      0.72553610166738
   4       -1.219666346868
   5      0.72553610166738
   6       -1.219666346868
