[Molden Format]
made by pyscf v[2.8.0]
[Atoms] (AU)
H   1   1     0.00000000000000     0.00000000000000     0.00000000000000
H   2   1     2.83458918684759     0.00000000000000     0.00000000000000
[GTO]
1 0
 s    3 1.00
                 13.01   0.033498726389998
                 1.962    0.23480080117413
                0.4446     0.8136829578829
 s    1 1.00
                 0.122                   1
 p    1 1.00
                 0.727                   1

2 0
 s    3 1.00
                 13.01   0.033498726389998
                 1.962    0.23480080117413
                0.4446     0.8136829578829
 s    1 1.00
                 0.122                   1
 p    1 1.00
                 0.727                   1

[5d]
[7f]
[9g]

[MO]
 Sym= A
 Ene=   -0.1784554174
 Spin= Alpha
 Occup=    1.00000
   1      0.31105622640967
   2      0.33771169872826
   3    -0.010932848805051
   4    6.3451840164773e-18
   5    -6.0186803973266e-18
   6      0.31105622640967
   7      0.33771169872826
   8     0.010932848805051
   9    1.4978398144662e-18
  10    6.6933720582314e-19
 Sym= A
 Ene=   0.01556265652
 Spin= Alpha
 Occup=    1.00000
   1     -0.30609403381884
   2     -0.77776666193853
   3      0.01605759181713
   4    1.2394888122745e-16
   5    1.5863546715049e-17
   6      0.30609403381884
   7      0.77776666193854
   8      0.01605759181713
   9    1.8088003669869e-18
  10    5.1568273494514e-19
 Sym= A
 Ene=    0.9505697855
 Spin= Alpha
 Occup=    0.00000
   1      0.92290430789657
   2     -0.75148011759091
   3     0.088981098286694
   4    -7.7038979490619e-17
   5    6.0411310590921e-17
   6      0.92290430789665
   7     -0.75148011759102
   8    -0.088981098286689
   9    -2.8597609941825e-17
  10    1.3890166406531e-17
 Sym= A
 Ene=    0.9568613273
 Spin= Alpha
 Occup=    0.00000
   1     -0.93442355491007
   2       1.2740476975744
   3     0.047165382750487
   4    2.6396681126363e-17
   5    7.2041120994356e-17
   6      0.93442355490999
   7      -1.2740476975744
   8     0.047165382750494
   9    -2.7694557351669e-17
  10    1.0901252453697e-17
 Sym= A
 Ene=     1.622851974
 Spin= Alpha
 Occup=    0.00000
   1     -0.19622331247718
   2     0.085810664379923
   3      0.62983389476516
   4    -4.2337798653537e-16
   5    1.0949230920016e-15
   6     -0.19622331247718
   7     0.085810664379924
   8     -0.62983389476515
   9    -1.9947546512204e-16
  10    4.8514549742124e-16
 Sym= A
 Ene=     1.741269257
 Spin= Alpha
 Occup=    0.00000
   1    -2.1617983620423e-16
   2    3.0038038419169e-16
   3    5.3038245190134e-16
   4      0.61727765094412
   5     -0.30561097414761
   6    -2.6925842125803e-17
   7    -3.4973000920919e-16
   8    -5.4504767844232e-16
   9      0.61727765094412
  10     -0.30561097414761
 Sym= A
 Ene=     1.741269257
 Spin= Alpha
 Occup=    0.00000
   1    1.1641755742268e-16
   2    -1.5781457538479e-18
   3    -4.7035579807412e-16
   4       0.3056109741476
   5      0.61727765094412
   6    7.938361260401e-18
   7    -2.445403441614e-17
   8    5.3028039341784e-16
   9      0.30561097414761
  10      0.61727765094412
 Sym= A
 Ene=     1.964028414
 Spin= Alpha
 Occup=    0.00000
   1    1.8908723066964e-17
   2    4.2027377665086e-17
   3    -1.6158546497527e-16
   4      0.30732299302929
   5      0.65881419018938
   6    -1.1713207818557e-16
   7    3.7317222044484e-17
   8    2.2894700666472e-16
   9     -0.30732299302929
  10     -0.65881419018938
 Sym= A
 Ene=     1.964028414
 Spin= Alpha
 Occup=    0.00000
   1    -1.0809251476999e-16
   2    1.4706094868968e-16
   3    7.7934184922552e-17
   4      0.65881419018938
   5     -0.30732299302929
   6    -1.4508350600162e-16
   7    -8.0740991233998e-17
   8    -2.1821880002176e-16
   9     -0.65881419018938
  10      0.30732299302929
 Sym= A
 Ene=     2.495502958
 Spin= Alpha
 Occup=    0.00000
   1     0.049282495024739
   2      0.34914481150898
   3      0.86975838787552
   4    2.5040613207026e-16
   5    -1.1179711861877e-16
   6    -0.049282495024739
   7     -0.34914481150898
   8      0.86975838787552
   9    -3.26038923682e-17
  10    1.7007960181872e-17
