[Molden Format]
made by pyscf v[2.8.0]
[Atoms] (AU)
H   1   1     0.00000000000000     0.00000000000000     0.00000000000000
H   2   1     1.64406172837160     0.00000000000000     0.00000000000000
H   3   1     0.82203086418580     7.55890449826025     0.00000000000000
[GTO]
1 0
 s    3 1.00
                 13.01   0.033498726389998
                 1.962    0.23480080117413
                0.4446     0.8136829578829
 s    1 1.00
                 0.122                   1
 p    1 1.00
                 0.727                   1

2 0
 s    3 1.00
                 13.01   0.033498726389998
                 1.962    0.23480080117413
                0.4446     0.8136829578829
 s    1 1.00
                 0.122                   1
 p    1 1.00
                 0.727                   1

3 0
 s    3 1.00
                 13.01   0.033498726389998
                 1.962    0.23480080117413
                0.4446     0.8136829578829
 s    1 1.00
                 0.122                   1
 p    1 1.00
                 0.727                   1

[5d]
[7f]
[9g]

[MO]
 Sym= A
 Ene=   -0.5560973959
 Spin= Alpha
 Occup=    1.00000
   1      0.38891305561562
   2      0.20310810523353
   3     0.021330978374073
   4    4.5127711100844e-06
   5    4.3964641019065e-18
   6      0.38891305561562
   7      0.20310810523353
   8    -0.021330978374073
   9    4.5127711100997e-06
  10    4.9838253723437e-19
  11    -7.3155435610873e-05
  12    0.0021113813325327
  13    -5.420979005789e-20
  14    -0.00023420848756281
  15    -3.1152067871582e-24
 Sym= A
 Ene=   0.07382897544
 Spin= Alpha
 Occup=    0.00000
   1    -0.022053627612634
   2     0.013356832040832
   3    -0.0001430282546569
   4    0.0014360058756158
   5    4.6505871754999e-17
   6    -0.022053627612634
   7     0.013356832040832
   8    0.00014302825465711
   9    0.0014360058756161
  10    -2.173340964519e-17
  11      0.21894572473103
  12      0.83631001679084
  13    -4.0032164487149e-16
  14    4.4310955508951e-05
  15    3.111084178888e-21
 Sym= A
 Ene=    0.1713400977
 Spin= Alpha
 Occup=    0.00000
   1      0.17499425709751
   2       1.6196658856701
   3    0.0070770095585632
   4    1.1009130315349e-06
   5    -1.7139561421087e-16
   6     -0.17499425709752
   7      -1.6196658856701
   8    0.0070770095585628
   9    -1.100913031701e-06
  10    -4.9952291676656e-17
  11    -2.813810129715e-16
  12    -1.3023872948466e-16
  13    -0.00064418730399878
  14    -1.6995011052706e-17
  15    -4.956922498601e-22
 Sym= A
 Ene=    0.5092326985
 Spin= Alpha
 Occup=    0.00000
   1      0.73463080900504
   2     -0.72533326586029
   3     0.034367218708558
   4    -0.00020307467925077
   5    1.4647818160867e-16
   6      0.73463080900504
   7      -0.7253332658603
   8    -0.034367218708557
   9    -0.00020307467925083
  10    7.5724621033205e-17
  11      0.13831432654464
  12    -0.055270034420282
  13    7.5352039280483e-18
  14    0.0046703756206667
  15    1.1256368252387e-21
 Sym= A
 Ene=    0.7582427514
 Spin= Alpha
 Occup=    0.00000
   1    -0.087970111684191
   2     0.096840079468246
   3    -0.0094650481743141
   4    -0.0069026786556222
   5    -1.899147284919e-17
   6    -0.087970111684192
   7     0.096840079468248
   8    0.0094650481743136
   9    -0.0069026786556228
  10    4.6762788996609e-17
  11       1.3482487992164
  12      -1.0887956539662
  13    1.898879999971e-16
  14    -0.00092339589428593
  15    2.1427487388003e-21
 Sym= A
 Ene=    0.8561492627
 Spin= Alpha
 Occup=    0.00000
   1     -0.89260396311925
   2       1.5397574495915
   3      0.29660587368825
   4    -1.2987033351176e-06
   5    -2.5657995915879e-16
   6      0.89260396311925
   7      -1.5397574495915
   8      0.29660587368825
   9    1.2987033348145e-06
  10    -1.112784640011e-16
  11    6.9442551953488e-16
  12    -7.8443747289238e-16
  13    -0.0020144931871069
  14    -2.2226330244369e-17
  15    -1.3841088563115e-21
 Sym= A
 Ene=     1.283877574
 Spin= Alpha
 Occup=    0.00000
   1    -2.060999393648e-15
   2    3.0097721427307e-15
   3    3.4891590735092e-16
   4    9.577051213233e-13
   5      0.60316151194199
   6    -1.5510630508925e-15
   7    8.489526888175e-16
   8    -8.6367166593586e-17
   9    9.5712986385518e-13
  10      0.60316151194199
  11    3.0140721554706e-14
  12    -3.2373139285337e-14
  13    4.3224953350448e-16
  14    -1.6191487589946e-15
  15    1.1654062865096e-05
 Sym= A
 Ene=     1.284022826
 Spin= Alpha
 Occup=    0.00000
   1    -0.00066839596935565
   2    0.00091909575402584
   3    -0.0003711122371491
   4      0.60312577440182
   5    -9.5785356394791e-13
   6    -0.0006683959693554
   7    0.0009190957540248
   8    0.00037111223714906
   9      0.60312577440182
  10    -9.571560315562e-13
  11     0.018991059097158
  12    -0.020367008463814
  13    -6.8633459262468e-16
  14    -0.00012784719932834
  15    -1.8504812466352e-17
 Sym= A
 Ene=       1.5742668
 Spin= Alpha
 Occup=    0.00000
   1    -0.0026451771219748
   2    0.0069122770029782
   3    0.00050684066176876
   4    -3.3965860593534e-06
   5    -6.9281499941927e-16
   6    0.0026451771219698
   7    -0.0069122770029626
   8    0.00050684066179512
   9    3.3965860604537e-06
  10    9.8758450641679e-17
  11    1.0172780417277e-15
  12    -1.5153934994504e-15
  13      0.99999850669392
  14    1.8147641285666e-12
  15    -1.579540856544e-16
 Sym= A
 Ene=     1.574279962
 Spin= Alpha
 Occup=    0.00000
   1    7.6369860141323e-16
   2    -8.0913325154845e-17
   3    7.3840928073198e-16
   4    2.0989600584104e-17
   5    -7.0298257085184e-06
   6    -7.6657535847093e-16
   7    1.0251814922338e-16
   8    7.7466466811753e-16
   9    -1.9811399229795e-17
  10    -7.0298257086696e-06
  11    -3.9904057770535e-18
  12    5.9101949599268e-18
  13    1.5778068890827e-16
  14    4.195345504735e-17
  15      0.99999999993209
 Sym= A
 Ene=     1.574388881
 Spin= Alpha
 Occup=    0.00000
   1    -0.0013911977889964
   2    0.0043026318925256
   3    -0.007226331442932
   4    6.8980295225099e-05
   5    1.7068535588047e-15
   6    -0.0013911977890056
   7    0.0043026318925507
   8    0.0072263314429297
   9    6.8980295223694e-05
  10    1.2021711365567e-16
  11    0.0005316907892487
  12    -0.0007669097231067
  13    -1.8149256561353e-12
  14      0.99992986748891
  15    -4.2514768535355e-17
 Sym= A
 Ene=     1.823258477
 Spin= Alpha
 Occup=    0.00000
   1     -0.42204877729519
   2      0.21097495554965
   3      0.66238830250522
   4    0.00028062198067142
   5    2.9159081297944e-15
   6     -0.42204877729519
   7      0.21097495554965
   8     -0.66238830250521
   9    0.00028062198067212
  10    -4.8305081702127e-15
  11     0.022117186296962
  12    -0.028442456329222
  13    1.212272736206e-17
  14     0.011585885849562
  15    2.2023473020504e-20
 Sym= A
 Ene=     1.955847672
 Spin= Alpha
 Occup=    0.00000
   1    -2.49103295594e-07
   2    4.5206006811885e-07
   3    1.7517853837182e-06
   4       0.8939746944216
   5    -1.1709688267297e-09
   6    2.4910329522286e-07
   7    -4.5206006794617e-07
   8    1.7517853831962e-06
   9      -0.8939746944216
  10    1.1709685314312e-09
  11    -6.2912356156319e-16
  12    5.1845824014171e-16
  13    3.8035888996087e-06
  14    -5.0226582518536e-16
  15    -2.4795973376093e-17
 Sym= A
 Ene=      1.95584811
 Spin= Alpha
 Occup=    0.00000
   1    1.4816011750385e-15
   2    2.3383550483368e-16
   3    -6.7793330650716e-16
   4    1.1709689603736e-09
   5      0.89397469442995
   6    2.1810843483716e-15
   7    -1.9618453380266e-15
   8    5.4680714349031e-15
   9    -1.1709686297986e-09
  10     -0.89397469442995
  11    -9.5561710395386e-17
  12    1.1730991209372e-16
  13    5.5528140902228e-15
  14    -9.0232784718908e-16
  15    -3.1088621404499e-17
 Sym= A
 Ene=     3.034531895
 Spin= Alpha
 Occup=    0.00000
   1       1.6066527351696
   2      0.23158748565231
   3       1.6754541150403
   4    -7.0841438902251e-07
   5    -1.0002463608132e-16
   6      -1.6066527351696
   7     -0.23158748565231
   8       1.6754541150403
   9    7.0841438926396e-07
  10    2.5690319914518e-17
  11    2.6870403896614e-16
  12    -1.9672256613365e-16
  13    0.00034520042749648
  14    4.9711084961185e-17
  15    -9.1578134402607e-17
