[Molden Format]
made by pyscf v[2.8.0]
[Atoms] (AU)
H   1   1     0.00000000000000     0.00000000000000     0.00000000000000
H   2   1     1.75744529584551     0.00000000000000     0.00000000000000
H   3   1    -1.75744529584551     0.00000000000000     0.00000000000000
[GTO]
1 0
 s    3 1.00
                 13.01   0.033498726389998
                 1.962    0.23480080117413
                0.4446     0.8136829578829
 s    1 1.00
                 0.122                   1
 p    1 1.00
                 0.727                   1

2 0
 s    3 1.00
                 13.01   0.033498726389998
                 1.962    0.23480080117413
                0.4446     0.8136829578829
 s    1 1.00
                 0.122                   1
 p    1 1.00
                 0.727                   1

3 0
 s    3 1.00
                 13.01   0.033498726389998
                 1.962    0.23480080117413
                0.4446     0.8136829578829
 s    1 1.00
                 0.122                   1
 p    1 1.00
                 0.727                   1

[5d]
[7f]
[9g]

[MO]
 Sym= A
 Ene=   -0.6954784004
 Spin= Alpha
 Occup=    1.00000
   1      0.32337859533325
   2     0.053065002756843
   3    3.3923327728042e-17
   4    -5.2392901159039e-18
   5    -2.8609642992959e-19
   6      0.33506247700877
   7      0.16116720508757
   8    -0.014316741015711
   9    5.4710984197772e-18
  10    -6.6049745576249e-18
  11      0.33506247700877
  12      0.16116720508757
  13     0.014316741015711
  14    -5.2267698103776e-18
  15    8.5166713096296e-18
 Sym= A
 Ene=   -0.4068365925
 Spin= Alpha
 Occup=    1.00000
   1    8.6271095174584e-16
   2    -3.3504800969791e-16
   3    -0.040613055788043
   4    -1.9425787586451e-17
   5    -1.1487237631294e-16
   6     -0.43582184485067
   7     -0.44910514268766
   8    -0.00038105082986287
   9    -1.3867957967218e-17
  10    -1.3886887501219e-17
  11      0.43582184485067
  12      0.44910514268766
  13    -0.00038105082986321
  14    -2.6153561253877e-17
  15    -2.1789022873618e-17
 Sym= A
 Ene=    0.2300956969
 Spin= Alpha
 Occup=    0.00000
   1      0.31778600920078
   2       2.9993711610303
   3    -4.0187120678415e-16
   4    1.0639289283632e-17
   5    -4.5735936441088e-18
   6     0.021807278646059
   7      -1.9821916409856
   8    -0.012871017714153
   9    -3.6256076702217e-17
  10    -3.3022849992372e-19
  11     0.021807278646055
  12      -1.9821916409856
  13     0.012871017714152
  14    8.1370944559233e-18
  15    -2.5111421089536e-18
 Sym= A
 Ene=    0.5625297219
 Spin= Alpha
 Occup=    0.00000
   1    2.6569667362817e-14
   2    -9.6246028900768e-14
   3     -0.21252149618099
   4    -1.7422296995172e-16
   5    3.7297796112074e-16
   6     -0.74697975757046
   7        1.220571089713
   8    -0.055548533025496
   9    6.0213624130455e-18
  10    2.1654039662533e-16
  11      0.74697975757052
  12      -1.2205710897129
  13    -0.055548533025494
  14    2.0110893865244e-16
  15    1.503200843496e-16
 Sym= A
 Ene=    0.5670110106
 Spin= Alpha
 Occup=    0.00000
   1     -0.55775558399019
   2       2.1563386770747
   3    -1.0788429043789e-14
   4    2.8100830717942e-17
   5    -9.9244984587059e-17
   6     -0.66873974640886
   7     -0.38380145994998
   8    0.00056655673072688
   9    1.5024655361343e-17
  10    1.8216894392693e-17
  11     -0.66873974640879
  12     -0.38380145995009
  13    -0.00056655673073364
  14    1.6745865381326e-18
  15    -5.6596131245969e-17
 Sym= A
 Ene=    0.9085593569
 Spin= Alpha
 Occup=    0.00000
   1       -1.086734613336
   2       3.0388864989873
   3    -1.73780550206e-15
   4    -1.8410554831242e-16
   5    1.3422714270288e-17
   6      0.64866048038413
   7      -1.7184556806791
   8      0.21912589624448
   9    -1.1567718573313e-16
  10    -2.4620023850186e-20
  11      0.64866048038413
  12      -1.7184556806791
  13     -0.21912589624448
  14    -2.0287841670587e-17
  15    1.0901056403559e-17
 Sym= A
 Ene=     1.169472149
 Spin= Alpha
 Occup=    0.00000
   1    -2.3639475031966e-16
   2    8.6540308131079e-16
   3    -4.5305514885794e-16
   4       0.5543537859397
   5    -0.035846025664468
   6    5.1123551106202e-16
   7    -7.768608402639e-16
   8    4.1046086742304e-16
   9      0.43175315229554
  10     -0.02791833477184
  11    -2.0180702680248e-16
  12    -2.5415277576255e-16
  13    3.6025591137101e-16
  14      0.43175315229554
  15    -0.027918334771838
 Sym= A
 Ene=     1.169472149
 Spin= Alpha
 Occup=    0.00000
   1    7.9195659996567e-17
   2    -3.6378880121606e-16
   3    -2.918360794139e-16
   4     0.035846025664468
   5       0.5543537859397
   6    1.1834861075368e-15
   7    -1.2394942074507e-15
   8    -2.303301655253e-16
   9     0.027918334771839
  10      0.43175315229554
  11    -9.4726986786648e-16
  12    1.3758912214974e-15
  13    -2.2837260325529e-16
  14     0.027918334771839
  15      0.43175315229554
 Sym= A
 Ene=     1.482662092
 Spin= Alpha
 Occup=    0.00000
   1    8.9881539672676e-17
   2    -2.8026990254466e-16
   3    -1.684940923413e-16
   4    1.1981122173088e-15
   5    -1.2153249401799e-15
   6    6.2491764870309e-16
   7    -5.8186946545425e-16
   8    -4.8853459125841e-16
   9     -0.63994713046416
  10      0.31005936970835
  11    -6.8952195790269e-16
  12    8.9144588515959e-16
  13    -4.9788366165995e-16
  14      0.63994713046416
  15     -0.31005936970835
 Sym= A
 Ene=     1.482662092
 Spin= Alpha
 Occup=    0.00000
   1    1.4947506583929e-17
   2    -3.1986047978131e-17
   3    -1.9417300278527e-16
   4    1.0635485767386e-16
   5    1.4758182480475e-15
   6    -2.6122940361789e-16
   7    5.5636838776991e-16
   8    -5.3332354390843e-16
   9     -0.31005936970835
  10     -0.63994713046415
  11    1.3412666045984e-16
  12    -4.3127181817193e-16
  13    -5.3179476584239e-16
  14      0.31005936970835
  15      0.63994713046416
 Sym= A
 Ene=     1.693002191
 Spin= Alpha
 Occup=    0.00000
   1    -1.8301539302053e-16
   2    5.1545772516953e-15
   3     0.060339801229913
   4    -6.1534679237849e-16
   5    -3.5525858012054e-16
   6      0.12926350749864
   7        -0.35105343299
   8      0.78730701035536
   9    -8.1430036803129e-16
  10    1.5441203319068e-16
  11     -0.12926350749864
  12         0.35105343299
  13      0.78730701035536
  14    4.1642845586554e-16
  15    6.8846969930211e-16
 Sym= A
 Ene=     2.135331534
 Spin= Alpha
 Occup=    0.00000
   1    -1.0091257030351e-16
   2    -5.2871713785811e-17
   3    -1.2499251389085e-15
   4       0.9764445605872
   5     0.053418873602955
   6    7.7386847798561e-16
   7    -6.6109172953324e-17
   8    -3.7268519986258e-16
   9     -0.66101099654022
  10    -0.036162281300548
  11    -6.7397095639575e-16
  12    1.2017124017354e-16
  13    -2.4667264969786e-16
  14     -0.66101099654022
  15    -0.036162281300549
 Sym= A
 Ene=     2.135331534
 Spin= Alpha
 Occup=    0.00000
   1    5.5548869996734e-17
   2    -2.0231445174331e-16
   3    1.7406753725318e-17
   4    -0.053418873602955
   5       0.9764445605872
   6    2.6014350065037e-16
   7    -3.1710244733761e-16
   8    4.8441189160121e-16
   9     0.036162281300548
  10     -0.66101099654022
  11    -1.2124514969626e-16
  12    3.780444664513e-16
  13    4.7231852920892e-16
  14     0.036162281300549
  15     -0.66101099654022
 Sym= A
 Ene=     2.599423907
 Spin= Alpha
 Occup=    0.00000
   1       1.5382720084794
   2      0.60051004462722
   3    1.8335870408539e-15
   4    8.0063949750647e-17
   5    1.8624309918831e-18
   6     -0.49897726434559
   7     -0.46135440568136
   8       1.0318346345972
   9    -1.0511416817185e-17
  10    -1.2052518380745e-18
  11     -0.49897726434558
  12     -0.46135440568136
  13      -1.0318346345972
  14    -3.5695087902421e-17
  15    4.5568611067306e-19
 Sym= A
 Ene=     3.706717372
 Spin= Alpha
 Occup=    0.00000
   1    -1.8270269551117e-15
   2    3.3341620459843e-15
   3       2.7412663813295
   4    3.9925854404012e-17
   5    -1.7011315105049e-16
   6      -1.4822648788132
   7     0.075254620393091
   8       1.3027049242391
   9    -1.4959980476612e-18
  10    2.514789030374e-17
  11       1.4822648788132
  12    -0.075254620393094
  13       1.3027049242391
  14    1.2459066088592e-16
  15    2.0149363074626e-17
