[Molden Format]
made by pyscf v[2.8.0]
[Atoms] (AU)
H   1   1     0.00000000000000     0.00000000000000     0.00000000000000
H   2   1     1.75744529584551     0.00000000000000     0.00000000000000
H   3   1    -1.75744529584551     0.00000000000000     0.00000000000000
[GTO]
1 0
 s    3 1.00
                 13.01   0.033498726389998
                 1.962    0.23480080117413
                0.4446     0.8136829578829
 s    1 1.00
                 0.122                   1
 p    1 1.00
                 0.727                   1

2 0
 s    3 1.00
                 13.01   0.033498726389998
                 1.962    0.23480080117413
                0.4446     0.8136829578829
 s    1 1.00
                 0.122                   1
 p    1 1.00
                 0.727                   1

3 0
 s    3 1.00
                 13.01   0.033498726389998
                 1.962    0.23480080117413
                0.4446     0.8136829578829
 s    1 1.00
                 0.122                   1
 p    1 1.00
                 0.727                   1

[5d]
[7f]
[9g]

[MO]
 Sym= A
 Ene=   -0.5913783662
 Spin= Alpha
 Occup=    1.00000
   1      0.46216520317258
   2      0.31628955088668
   3    8.9773177789651e-17
   4    2.5209922015192e-19
   5    -6.6458956188584e-19
   6      0.20579975480997
   7     0.028273788560684
   8     -0.02099648799171
   9    -2.463751140424e-18
  10    4.0259405192535e-18
  11      0.20579975480997
  12     0.028273788560684
  13      0.02099648799171
  14    5.1307945937807e-19
  15    -5.74794044814e-18
 Sym= A
 Ene=   0.06675894615
 Spin= Alpha
 Occup=    0.00000
   1    -1.0502663040233e-15
   2    -4.9402976431161e-15
   3     0.014312078844775
   4    -1.1181376570361e-16
   5    5.9145589768676e-17
   6      0.25879683354707
   7      0.69847761977487
   8    -0.014714331667026
   9    -1.5762186471413e-16
  10    8.6293018124431e-18
  11     -0.25879683354707
  12     -0.69847761977486
  13    -0.014714331667026
  14    -2.2840156721202e-16
  15    1.3605547861343e-17
 Sym= A
 Ene=    0.2689042654
 Spin= Alpha
 Occup=    0.00000
   1      0.30522993966397
   2       2.8639724295251
   3    -4.1547888281048e-16
   4    9.5719234296899e-17
   5    -6.0442438487005e-17
   6     0.053511553507377
   7      -2.0034937622131
   8    0.0084987564317853
   9    2.0758640422081e-17
  10    1.1334205650617e-17
  11     0.053511553507373
  12      -2.0034937622131
  13    -0.0084987564317861
  14    2.9619340643455e-17
  15    -2.4623916876779e-18
 Sym= A
 Ene=    0.6095614046
 Spin= Alpha
 Occup=    0.00000
   1     -0.78292096099965
   2       2.9513080957618
   3    5.2693026817522e-17
   4    -2.0068763036149e-17
   5     2.04461606183e-16
   6     -0.52749685316946
   7     -0.88761198838573
   8      0.03621408451521
   9    5.1942952517781e-18
  10    5.6696063178775e-17
  11     -0.52749685316947
  12     -0.88761198838572
  13     -0.03621408451521
  14    1.2267059728592e-17
  15    -6.8181761599805e-18
 Sym= A
 Ene=    0.6690795267
 Spin= Alpha
 Occup=    0.00000
   1    3.4455226113898e-15
   2    -1.6242623601263e-14
   3      0.24825139120192
   4    -4.2158294973798e-16
   5    4.0689968385815e-16
   6      0.80348830579473
   7      -1.0996134302061
   8     0.068496854928021
   9    -3.4824718794963e-16
  10    1.7183669523357e-16
  11     -0.80348830579472
  12       1.0996134302061
  13      0.06849685492802
  14    -2.7646012587705e-16
  15    2.0344069166382e-16
 Sym= A
 Ene=    0.9822623093
 Spin= Alpha
 Occup=    0.00000
   1     -0.92158401197703
   2       2.4226731975042
   3    -1.4407553164968e-15
   4    3.6832684263672e-16
   5    -4.4442997214159e-17
   6      0.80701121320832
   7      -1.5031896327739
   8      0.20661708613517
   9    1.1082413547124e-16
  10    -2.7514204764565e-17
  11      0.80701121320832
  12      -1.5031896327739
  13     -0.20661708613517
  14    1.2064064118572e-16
  15    -2.0458885433564e-17
 Sym= A
 Ene=     1.199543364
 Spin= Alpha
 Occup=    0.00000
   1    2.0908693678917e-17
   2    1.2960919371547e-16
   3    -1.5384995738505e-16
   4      0.16943376110846
   5      0.58247961413136
   6    -3.9594532288657e-16
   7    4.4078203432397e-16
   8    -5.591094161808e-17
   9      0.11086133920184
  10      0.38111926252429
  11    2.1268887416032e-16
  12    -4.7465795728371e-16
  13    -5.738290908719e-17
  14      0.11086133920184
  15      0.38111926252429
 Sym= A
 Ene=     1.199543364
 Spin= Alpha
 Occup=    0.00000
   1    3.2428587176198e-16
   2    -1.8392806172362e-15
   3    -2.3081450639098e-16
   4      0.58247961413136
   5     -0.16943376110846
   6    1.8887698916446e-16
   7    8.9014751385439e-16
   8    -8.1494730445806e-16
   9      0.38111926252429
  10     -0.11086133920184
  11    -9.2383990800066e-16
  12    1.5121992934251e-15
  13    -5.7200714154372e-16
  14      0.38111926252429
  15     -0.11086133920184
 Sym= A
 Ene=     1.567846077
 Spin= Alpha
 Occup=    0.00000
   1    -9.7534379188887e-18
   2    9.3419417086382e-17
   3    1.2926072745321e-17
   4    -6.4264188963304e-16
   5    -1.7777405018546e-16
   6    -1.540795360686e-17
   7    -2.2215511038566e-17
   8    -1.6772067422727e-16
   9      0.67977812151523
  10     -0.20873631222784
  11    4.506970581283e-18
  12    -6.2655147077712e-17
  13    -1.7716146465115e-16
  14     -0.67977812151522
  15      0.20873631222784
 Sym= A
 Ene=     1.567846077
 Spin= Alpha
 Occup=    0.00000
   1    1.3618331441875e-17
   2    -1.3143560348996e-16
   3    4.4343553299727e-17
   4    2.131711465577e-16
   5    -1.939144994194e-16
   6    2.0147975238902e-16
   7    -2.7103367759735e-16
   8    4.1957913206039e-16
   9      0.20873631222784
  10      0.67977812151523
  11    -1.4537064238658e-16
  12    3.5781034192119e-16
  13    4.2974492168054e-16
  14     -0.20873631222784
  15     -0.67977812151522
 Sym= A
 Ene=     1.763613678
 Spin= Alpha
 Occup=    0.00000
   1    -4.5802979822053e-16
   2    3.3748053309331e-15
   3     0.042489960956826
   4    8.6201292454777e-16
   5    -1.1184771052855e-17
   6      0.14474847200882
   7      -0.3418073076914
   8      0.77848121453141
   9    6.5057467019307e-17
  10    -5.8466516607703e-16
  11     -0.14474847200882
  12      0.34180730769139
  13      0.77848121453141
  14    -2.0418022756353e-17
  15    3.3375276403547e-16
 Sym= A
 Ene=     2.164062435
 Spin= Alpha
 Occup=    0.00000
   1    1.1369366413928e-16
   2    -9.6334750477554e-17
   3    6.7143426493401e-16
   4      0.92657860164578
   5     -0.19583770880279
   6    -4.7588755046721e-16
   7    9.3581933513185e-17
   8    2.9692672657651e-17
   9     -0.66924121786068
  10      0.14144797485009
  11    3.709690133212e-16
  12    2.1257844692902e-17
  13    -8.4373626278702e-17
  14     -0.66924121786068
  15      0.14144797485009
 Sym= A
 Ene=     2.164062435
 Spin= Alpha
 Occup=    0.00000
   1    2.1269226548253e-18
   2    7.2683846813346e-17
   3    -3.9519409471669e-17
   4      0.19583770880279
   5      0.92657860164578
   6    -1.1661558289446e-16
   7    1.4779549405349e-16
   8    -6.4685222866254e-17
   9     -0.14144797485009
  10     -0.66924121786068
  11    5.2738068268004e-17
  12    -1.8313097225224e-16
  13    -7.5521353945709e-17
  14     -0.14144797485009
  15     -0.66924121786068
 Sym= A
 Ene=     2.649550641
 Spin= Alpha
 Occup=    0.00000
   1       1.5148866404897
   2      0.60194780398098
   3    2.8694805287702e-15
   4    -7.4533257380499e-17
   5    3.1678086701956e-18
   6     -0.50493261400691
   7     -0.45395943430812
   8       1.0337091772578
   9    2.5212065113335e-17
  10    2.0604495319636e-18
  11      -0.5049326140069
  12     -0.45395943430812
  13      -1.0337091772578
  14    2.7145374737565e-17
  15    -5.8012586456824e-18
 Sym= A
 Ene=      3.73615394
 Spin= Alpha
 Occup=    0.00000
   1    -2.4319387795045e-15
   2    3.0297301321399e-15
   3       2.7388607277557
   4    -1.5504089157476e-16
   5    -1.3521003211268e-17
   6      -1.4927211009601
   7     0.080858321334466
   8         1.30730138103
   9    1.7948470294797e-16
  10    9.6228833782233e-17
  11       1.4927211009601
  12    -0.080858321334469
  13         1.30730138103
  14    2.2798850744668e-16
  15    -1.0143444628053e-16
