[Molden Format]
made by pyscf v[2.8.0]
[Atoms] (AU)
H   1   1     0.00000000000000     0.00000000000000     0.00000000000000
H   2   1     1.64406172837160     0.00000000000000     0.00000000000000
H   3   1     0.82203086418580     1.42379922217381     0.00000000000000
[GTO]
1 0
 s    3 1.00
                 13.01   0.033498726389998
                 1.962    0.23480080117413
                0.4446     0.8136829578829
 s    1 1.00
                 0.122                   1
 p    1 1.00
                 0.727                   1

2 0
 s    3 1.00
                 13.01   0.033498726389998
                 1.962    0.23480080117413
                0.4446     0.8136829578829
 s    1 1.00
                 0.122                   1
 p    1 1.00
                 0.727                   1

3 0
 s    3 1.00
                 13.01   0.033498726389998
                 1.962    0.23480080117413
                0.4446     0.8136829578829
 s    1 1.00
                 0.122                   1
 p    1 1.00
                 0.727                   1

[5d]
[7f]
[9g]

[MO]
 Sym= A
 Ene=   -0.7789096781
 Spin= Alpha
 Occup=    1.00000
   1      0.35992619385755
   2     0.077653441348148
   3     0.024609987645599
   4     0.019395219092747
   5    -6.4170021784099e-19
   6      0.35985162904418
   7     0.077613315476756
   8    -0.024614771714472
   9     0.019400646486725
  10    -3.094078742917e-19
  11      0.29172136681183
  12     0.044841048846375
  13    2.659004389752e-06
  14    -0.037033691482524
  15    1.6308525384706e-19
 Sym= A
 Ene=    0.1336036884
 Spin= Alpha
 Occup=    0.00000
   1      0.23182583327809
   2       1.5289737468022
   3    0.00047729687119813
   4     0.021050512719034
   5    2.5094839117437e-17
   6     -0.23178431513821
   7      -1.5283224495156
   8    0.00048462079605021
   9    -0.021066672455618
  10    5.7452201965951e-17
  11    -0.00012095943267866
  12    -0.00062432176822766
  13    -0.0086798047554806
  14    1.3630764766958e-05
  15    2.0930711265771e-18
 Sym= A
 Ene=    0.1857514828
 Spin= Alpha
 Occup=    0.00000
   1    -0.090995983769902
   2     -0.92985132045196
   3    -0.014418394872564
   4     0.008363089417926
   5    -8.0977523764782e-17
   6    -0.091146547907482
   7     -0.93098994857899
   8     0.014423246688085
   9    0.0083296715804188
  10    1.6793628015066e-16
  11      0.26253610516132
  12       1.8147258610375
  13    3.2680315510878e-06
  14    -0.040957323677912
  15    9.5196864439666e-18
 Sym= A
 Ene=     0.396645597
 Spin= Alpha
 Occup=    0.00000
   1     -0.52518126690333
   2      0.52500701035433
   3    -0.025453637158546
   4    -0.006955398738797
   5    8.479247476337e-17
   6     -0.52509706833433
   7      0.52492083179319
   8     0.025464413929816
   9    -0.0069530294060181
  10    -1.9731551265001e-16
  11     -0.44700955317265
  12       0.5294086571176
  13    7.5284752919955e-06
  14     0.027027181648896
  15    -9.1090328334115e-17
 Sym= A
 Ene=    0.7415735586
 Spin= Alpha
 Occup=    0.00000
   1     -0.79957801768833
   2       1.6494414079435
   3      0.27996380272415
   4     0.024981394785715
   5    3.5315730899043e-17
   6      0.79929354890455
   7      -1.6487819184208
   8      0.27991087706221
   9    -0.024794211265756
  10    1.1148943979852e-16
  11    0.00036528871491882
  12    -0.00072169428995579
  13      0.20691656332683
  14    9.3505833189942e-05
  15    8.1044034710515e-17
 Sym= A
 Ene=    0.8030916101
 Spin= Alpha
 Occup=    0.00000
   1      0.44469602066504
   2     -0.90738388508779
   3    -0.036041714090593
   4     -0.25048946831661
   5    -6.2326807758915e-17
   6      0.44528689319268
   7     -0.90855953893479
   8     0.036253669782371
   9     -0.25048441457158
  10    2.5149016826604e-16
  11     -0.94020149831278
  12       1.8547768327428
  13    7.4315333152631e-05
  14     -0.27151118495816
  15    8.2423460249324e-17
 Sym= A
 Ene=      1.05790031
 Spin= Alpha
 Occup=    0.00000
   1    -1.7456408907998e-16
   2    3.5081031302636e-16
   3    -3.0730501510737e-17
   4    -3.1378543150855e-16
   5      0.45244152037529
   6    -3.7447702497073e-16
   7    9.4611141344028e-16
   8    -2.8981558576275e-16
   9    2.1583037259814e-16
  10      0.45239230018021
  11    1.7540861552183e-16
  12    -7.5243331716659e-16
  13    -4.1035953249143e-17
  14    5.0269528574767e-16
  15      0.40431511410927
 Sym= A
 Ene=     1.627085596
 Spin= Alpha
 Occup=    0.00000
   1      0.26877407103186
   2    -0.075441135175206
   3     -0.49009796912116
   4      0.38717178027458
   5    7.7883078104671e-16
   6      0.26898199703096
   7    -0.075486573077974
   8      0.49009966528704
   9      0.38692442032592
  10    -7.603788637666e-16
  11      -0.3811873041573
  12     0.061715711125617
  13    -0.0001327494184542
  14     -0.27348340939949
  15    5.9715183866481e-16
 Sym= A
 Ene=     1.640350532
 Spin= Alpha
 Occup=    0.00000
   1       0.3279492812402
   2    -0.077120975584786
   3    -0.097646877348001
   4     -0.47073673606366
   5    -6.0228257381553e-16
   6     -0.32777558930798
   7     0.077045242020978
   8    -0.097331933830741
   9      0.47084536579013
  10    3.486867683452e-16
  11    -9.5656571135522e-06
  12    -1.6410682888235e-05
  13      0.63743850247488
  14    -2.4519179751216e-05
  15    -2.0314576692145e-16
 Sym= A
 Ene=     1.859887194
 Spin= Alpha
 Occup=    0.00000
   1    4.6935712307743e-15
   2    -2.455896829006e-15
   3    -4.2989402898543e-15
   4    -4.4513030394755e-15
   5      0.89414405811653
   6    4.895227954338e-15
   7    -2.8633000691391e-15
   8    4.0220590281486e-15
   9    -3.0547755471688e-15
  10      -0.8938052128699
  11    6.4860676647851e-15
  12    -2.8091870560364e-15
  13     3.72773573566e-17
  14    6.7525650170991e-15
  15    -0.00038961682245354
 Sym= A
 Ene=     1.864176584
 Spin= Alpha
 Occup=    0.00000
   1      0.41511883705833
   2     -0.22096292944859
   3     -0.41362836760738
   4     -0.32519478302171
   5    -9.7736648532988e-15
   6      0.41525355479791
   7     -0.22099409574335
   8      0.41361800679668
   9     -0.32526838103531
  10    1.0216510726643e-14
  11      0.58186767301151
  12     -0.26055178951821
  13    -6.8841393750515e-05
  14      0.54161225767719
  15    -4.0975892200211e-16
 Sym= A
 Ene=     1.912808146
 Spin= Alpha
 Occup=    0.00000
   1    1.2352538757313e-16
   2    -2.5181676280902e-16
   3    1.2245850151133e-17
   4    -1.3434029246998e-16
   5     -0.50200079952016
   6    -2.0330247552785e-16
   7    -9.5986990337158e-17
   8    -4.6787795977702e-17
   9    -6.8505447832908e-16
  10     -0.50264816415434
  11    5.7074617859038e-16
  12    4.6179797582391e-17
  13    3.7034566390074e-16
  14    4.8107866573191e-17
  15        1.045337680101
 Sym= A
 Ene=     2.504378048
 Spin= Alpha
 Occup=    0.00000
   1    -0.054906083678261
   2    -0.0086896206559282
   3     -0.61470158677894
   4      0.95953839227596
   5    5.3706123965402e-16
   6     0.054945183046458
   7    0.0086956838025904
   8     -0.61473603294078
   9     -0.95951954797251
  10    -4.9057628258772e-17
  11    -3.8940373428385e-05
  12    -6.1063129580058e-06
  13       1.1319685827678
  14    3.9259463740606e-05
  15    -2.0786180058514e-16
 Sym= A
 Ene=     3.104525314
 Spin= Alpha
 Occup=    0.00000
   1       1.8805615630756
   2      0.31794395078139
   3       1.6043679481223
   4      0.52060558822698
   5    2.7056947442674e-16
   6      -1.8797211039676
   7     -0.31780744727272
   8       1.6040086886246
   9     -0.51981142812937
  10    -2.2602811445097e-17
  11    -0.0008249910029385
  12    -0.0001432540178085
  13      0.80069114059621
  14    0.00074011990558825
  15    -6.3115925216338e-17
 Sym= A
 Ene=     3.157489637
 Spin= Alpha
 Occup=    0.00000
   1      -1.0846123846737
   2     -0.18048496119014
   3     -0.49305074866816
   4      -1.0392905961782
   5    4.6878442665537e-16
   6      -1.0860447491584
   7     -0.18072597628964
   8      0.49425805398181
   9      -1.0397308481917
  10    -3.5500837336953e-17
  11        2.156569522986
  12      0.36720989727121
  13    0.0003223465783663
  14      -1.9217240825146
  15    -1.0544658133439e-16
