[Molden Format]
made by pyscf v[2.8.0]
[Atoms] (AU)
H   1   1     0.00000000000000     0.00000000000000     0.00000000000000
H   2   1     1.64406172837160     0.00000000000000     0.00000000000000
H   3   1     0.82203086418580     1.42379922217381     0.00000000000000
[GTO]
1 0
 s    3 1.00
                 13.01   0.033498726389998
                 1.962    0.23480080117413
                0.4446     0.8136829578829
 s    1 1.00
                 0.122                   1
 p    1 1.00
                 0.727                   1

2 0
 s    3 1.00
                 13.01   0.033498726389998
                 1.962    0.23480080117413
                0.4446     0.8136829578829
 s    1 1.00
                 0.122                   1
 p    1 1.00
                 0.727                   1

3 0
 s    3 1.00
                 13.01   0.033498726389998
                 1.962    0.23480080117413
                0.4446     0.8136829578829
 s    1 1.00
                 0.122                   1
 p    1 1.00
                 0.727                   1

[5d]
[7f]
[9g]

[MO]
 Sym= A
 Ene=   -0.8457931523
 Spin= Alpha
 Occup=    1.00000
   1      0.32485651692009
   2     0.070345693173494
   3     0.024827990815375
   4    0.0039921901671063
   5    -5.5799796442206e-18
   6      0.32488960048596
   7     0.070365160384652
   8    -0.024826135178207
   9    0.0039832223004552
  10    1.6051891662125e-19
  11       0.3518368609647
  12     0.086796927888239
  13    -6.7099070016593e-06
  14    -0.016387314033779
  15    -1.0641071179021e-18
 Sym= A
 Ene=    -0.204413534
 Spin= Alpha
 Occup=    1.00000
   1     -0.19476780960334
   2     -0.75576754218962
   3    -0.013011823119876
   4     0.040386439080971
   5    -1.1210418418241e-16
   6     -0.19501220986551
   7     -0.75672000150038
   8     0.012991532728361
   9     0.040380559158245
  10    -2.3252387107838e-17
  11      0.37607622020637
  12       1.5118989760257
  13    -1.7614619974758e-05
  14     0.023853154250533
  15    -2.3472655018331e-17
 Sym= A
 Ene=    0.1111183839
 Spin= Alpha
 Occup=    0.00000
   1      0.23544373194377
   2        1.514726592301
   3    -0.0017263820182405
   4    0.0078631863140454
   5    -1.2382130334558e-16
   6     -0.23534113971282
   7      -1.5140757539405
   8    -0.0017374450108817
   9    -0.0078703452162242
  10    -3.9079174310754e-17
  11    -9.4718924092827e-05
  12    -0.00063619092243425
  13    -0.017616192404813
  14    -6.9064377318448e-07
  15    -2.8478530047768e-17
 Sym= A
 Ene=    0.3655409587
 Spin= Alpha
 Occup=    0.00000
   1     -0.51902316691422
   2      0.55052963009552
   3    -0.021880895934937
   4    -0.014214628969705
   5    -3.7517468936789e-16
   6     -0.51899872462967
   7      0.55051490883954
   8     0.021887571854019
   9    -0.014220970199059
  10    -2.1682534213053e-16
  11     -0.48195043930978
  12      0.46951764950236
  13    -2.067692887171e-06
  14     0.038253042918177
  15    -1.1619799463327e-16
 Sym= A
 Ene=    0.6962119148
 Spin= Alpha
 Occup=    0.00000
   1      0.43610149880155
   2      -1.0413599758401
   3    -0.030683625909289
   4     -0.23122051405688
   5    -3.5336474168902e-16
   6      0.43672515655605
   7      -1.0428177499053
   8     0.030897701787754
   9     -0.23124277119507
  10    -4.2087204358093e-16
  11     -0.90020492552876
  12       2.1195368686959
  13    8.239099525974e-05
  14     -0.27820519621092
  15    -2.7346999958701e-16
 Sym= A
 Ene=    0.7322113568
 Spin= Alpha
 Occup=    0.00000
   1     -0.79855932037668
   2        1.662714112814
   3       0.2796813528564
   4     0.038294656038747
   5    -1.8115326466346e-16
   6      0.79820186417011
   7      -1.6619598990992
   8      0.27964855542881
   9    -0.038103693252204
  10    -2.2000945126856e-16
  11    0.00037300414761989
  12    -0.00078529909352403
  13      0.20861492977121
  14    0.00011833884524628
  15    -1.3459240174318e-16
 Sym= A
 Ene=     1.037222272
 Spin= Alpha
 Occup=    0.00000
   1    -1.7222071246677e-16
   2    2.9648964683171e-16
   3    3.1952835255667e-17
   4    -6.0964661642765e-16
   5      0.44259579289882
   6    5.3114328530331e-16
   7    -1.6802642930938e-15
   8    -4.8998985278283e-16
   9    -4.95773459564e-16
  10      0.44258435590903
  11    -9.6740830573167e-16
  12    2.2638102737218e-15
  13    6.5532804327756e-16
  14    5.5737498794349e-16
  15      0.42451166708165
 Sym= A
 Ene=     1.575151099
 Spin= Alpha
 Occup=    0.00000
   1      0.20122317976994
   2    -0.034567597051234
   3     -0.43026750768957
   4      0.42618034698281
   5    -1.0873271888372e-15
   6      0.20144255959754
   7    -0.034613347430104
   8      0.43031153332167
   9      0.42590477871632
  10    1.201310313664e-15
  11     -0.42885292759281
  12       0.1015326291811
  13    -0.00019592651837949
  14     -0.35261908407901
  15    1.5165132944389e-15
 Sym= A
 Ene=     1.582103659
 Spin= Alpha
 Occup=    0.00000
   1      0.33217220499755
   2    -0.065695375700652
   3    -0.090760304494479
   4     -0.44983399253223
   5    4.7706436742577e-16
   6     -0.33207867254242
   7     0.065695097901942
   8     -0.09051675956319
   9      0.45009571364637
  10    -5.6872664366698e-16
  11    -0.00012476788851099
  12    3.5237959369542e-05
  13      0.66560842787634
  14    -0.00011856843087796
  15    -8.4495347482828e-16
 Sym= A
 Ene=     1.822654056
 Spin= Alpha
 Occup=    0.00000
   1      0.46140068091757
   2     -0.23767671116349
   3     -0.47489500158706
   4     -0.26749039150865
   5    9.0310130811009e-15
   6      0.46141805563689
   7     -0.23768327326622
   8      0.47486924978262
   9      -0.2674676988126
  10    -4.6531622140698e-15
  11      0.48352499079063
  12     -0.24487323178686
  13    6.8086701633888e-06
  14      0.50609452314305
  15    -4.9339884114221e-15
 Sym= A
 Ene=     1.850033755
 Spin= Alpha
 Occup=    0.00000
   1    2.2111417942234e-15
   2    -1.2555734987602e-15
   3    -1.6335799496397e-15
   4    -2.1793337556454e-15
   5     -0.50960755999869
   6    1.4613856802021e-15
   7    -7.5998739374207e-16
   8    1.9133787139717e-15
   9    -1.3981551824033e-15
  10     -0.51239903196023
  11    3.1496944383495e-15
  12    -1.6614601987136e-15
  13    2.6793987462524e-16
  14    2.5141039614212e-15
  15        1.037298868045
 Sym= A
 Ene=     1.850565708
 Spin= Alpha
 Occup=    0.00000
   1    -3.6189596012086e-15
   2    2.1406353759845e-15
   3    2.5570856677307e-15
   4    3.8141489960356e-15
   5      0.89476858887867
   6    -2.5273131775859e-15
   7    1.8019786460472e-15
   8    -3.6161960652517e-15
   9    2.2985313415671e-15
  10     -0.89317862082244
  11    -4.9431189607245e-15
  12    1.8942968723902e-15
  13    -1.9973932270728e-17
  14    -3.8920532148941e-15
  15    -0.0016222211851405
 Sym= A
 Ene=     2.467716045
 Spin= Alpha
 Occup=    0.00000
   1    -0.019768283127187
   2    -0.00063957987268721
   3     -0.58686845781503
   4       0.9761635933024
   5    -8.7913542463387e-16
   6     0.019782809403482
   7    0.00063996194777182
   8     -0.58687929533996
   9     -0.97615213313387
  10    5.0084462933619e-16
  11    -1.4638115472661e-05
  12    -3.5593512936516e-07
  13       1.1333010448738
  14    1.5035860148441e-05
  15    6.1036510732081e-17
 Sym= A
 Ene=     3.093761665
 Spin= Alpha
 Occup=    0.00000
   1       1.8804519240102
   2      0.31990895872067
   3       1.6151844242366
   4      0.50743324315332
   5    3.2236549445256e-16
   6      -1.8797362540066
   7     -0.31979416780457
   8       1.6148725544939
   9     -0.50675850894549
  10    -4.2428078090744e-17
  11    -0.00069960241073373
  12    -0.00012127533326187
  13      0.77488094917515
  14    0.00062412590043213
  15    -4.9670523830563e-17
 Sym= A
 Ene=     3.112616595
 Spin= Alpha
 Occup=    0.00000
   1      -1.0844874983011
   2     -0.18774128829198
   3     -0.49432234087427
   4      -1.0443499645397
   5    5.0424639922223e-16
   6      -1.0857001018742
   7     -0.18795578457388
   8      0.49536389015716
   9      -1.0446958880142
  10    -6.9743834433144e-17
  11       2.1556692952169
  12      0.38173682929828
  13    0.00025843638146843
  14      -1.9179383628436
  15    -8.2551461760257e-17
